                              Psi4 1.0.54 Driver

  ==> Input File <==

--------------------------------------------------------------------------
set_num_threads(2)
memory 2000 mb

molecule monomer {
0 1
C      1.205074    -0.695750     0.000000
C      0.000000    -1.391500     0.000000
C     -1.205074    -0.695750     0.000000
C     -1.205074     0.695750     0.000000
C      0.000000     1.391500     0.000000
C      1.205074     0.695750     0.000000
H      2.140382    -1.235750     0.000000
H      0.000000    -2.471500     0.000000
H     -2.140382    -1.235750     0.000000
H     -2.140382     1.235750     0.000000
H      0.000000     2.471500     0.000000
H      2.140382     1.235750     0.000000
}

set globals {
    freeze_core   true
    guess         sad
    scf_type      df
    mp_type       df
}

energy('mp2/aug-cc-pvtz')

print_variables()

--------------------------------------------------------------------------

    Molecular point group: d2h

    Geometry (in Angstrom), charge = 0, multiplicity = 1:

       Center              X                  Y                   Z               Mass
    ------------   -----------------  -----------------  -----------------  -----------------
           C          1.205074000000    -0.695750000000     0.000000000000    12.000000000000
           C          0.000000000000    -1.391500000000     0.000000000000    12.000000000000
           C         -1.205074000000    -0.695750000000     0.000000000000    12.000000000000
           C         -1.205074000000     0.695750000000     0.000000000000    12.000000000000
           C         -0.000000000000     1.391500000000     0.000000000000    12.000000000000
           C          1.205074000000     0.695750000000     0.000000000000    12.000000000000
           H          2.140382000000    -1.235750000000     0.000000000000     1.007825032070
           H          0.000000000000    -2.471500000000     0.000000000000     1.007825032070
           H         -2.140382000000    -1.235750000000     0.000000000000     1.007825032070
           H         -2.140382000000     1.235750000000     0.000000000000     1.007825032070
           H         -0.000000000000     2.471500000000     0.000000000000     1.007825032070
           H          2.140382000000     1.235750000000     0.000000000000     1.007825032070

  Charge       = 0
  Multiplicity = 1
  Basis Set: AUG-CC-PVTZ
  Basis Set:

    Orbital Energies (a.u.)
    -----------------------

    Doubly Occupied:

       1Ag   -11.235320     1B3u  -11.234737     1B2u  -11.234736
       1B1g  -11.233477     2Ag   -11.233477     2B2u  -11.232863
       3Ag    -1.151797     3B2u   -1.015660     2B3u   -1.015660
       4Ag    -0.824743     2B1g   -0.824743     5Ag    -0.710752
       4B2u   -0.644106     3B3u   -0.620054     5B2u   -0.588613
       4B3u   -0.588613     1B1u   -0.503302     6Ag    -0.495060
       3B1g   -0.495060     1B3g   -0.337190     1B2g   -0.337190

  @DF-RHF Final Energy:  -230.78162420426395

   => Energetics <=

    Nuclear Repulsion Energy =            204.0199732093685725
    One-Electron Energy =                -714.4888905146613070
    Two-Electron Energy =                 279.6872931010287857
    DFT Exchange-Correlation Energy =       0.0000000000000000
    Empirical Dispersion Energy =           0.0000000000000000
    PCM Polarization Energy =               0.0000000000000000
    EFP Energy =                            0.0000000000000000
    Total Energy =                       -230.7816242042639487
  Basis Set:
	 Reference Energy          =    -230.7816242042639487 [Eh]
	 Singles Energy            =      -0.0000000000000697 [Eh]
	 Same-Spin Energy          =      -0.2399095404665765 [Eh]
	 Opposite-Spin Energy      =      -0.7228154950870085 [Eh]
	 Correlation Energy        =      -0.9627250355536547 [Eh]
	 Total Energy              =    -231.7443492398176090 [Eh]

	 ================> DF-SCS-MP2 Energies <==================
	-----------------------------------------------------------
	 SCS Same-Spin Scale       =       0.3333333333333333 [-]
	 SCS Opposite-Spin Scale   =       1.2000000000000000 [-]
	 SCS Same-Spin Energy      =      -0.0799698468221922 [Eh]
	 SCS Opposite-Spin Energy  =      -0.8673785941044102 [Eh]
	 SCS Correlation Energy    =      -0.9473484409266721 [Eh]
	 SCS Total Energy          =    -231.7289726451906233 [Eh]
	-----------------------------------------------------------

*** Psi4 exiting successfully. Buy a developer a beer!
